/*--------------------------------*- C++ -*----------------------------------*\
|       o          |                                                          |
|    o     o       | HELYX-OS                                                  |
|   o   O   o      | Version: v2.4.0                                           |
|    o     o       | Web:     http://www.engys.com                            |
|       o          |                                                          |
\*---------------------------------------------------------------------------*/
FoamFile
{
    version 2.0;
    format ascii;
    class volScalarField;
    location "0";
    object AoA;
}
dimensions  [0 0 1 0 0 0 0];
internalField uniform 0;
boundaryField
{
    //- Set patchGroups for constraint patches
    #includeEtc "caseDicts/setConstraintTypes"

    merged_domain_ground
    {
        type zeroGradient;
    }

    interior_Glass
    {
        type zeroGradient;
    }

    interior_Floor
    {
        type zeroGradient;
    }

    interior_SideRight
    {
        type zeroGradient;
    }

    interior_SideLeft
    {
        type zeroGradient;
    }

    interior_SideBack
    {
        type zeroGradient;
    }

    interior_Ceiling
    {
        type zeroGradient;
    }

    interior_Duct
    {
        type zeroGradient;
    }

    interior_Inlet
    {
        type zeroGradient;
    }

    interior_Outlet
    {
        type zeroGradient;
    }

    interior_Person1
    {
        type zeroGradient;
    }

}
