/*--------------------------------*- C++ -*----------------------------------*\
|       o          |                                                          |
|    o     o       | HELYX-OS                                                  |
|   o   O   o      | Version: v2.4.0                                           |
|    o     o       | Web:     http://www.engys.com                            |
|       o          |                                                          |
\*---------------------------------------------------------------------------*/
FoamFile
{
    version 2.0;
    format ascii;
    class volVectorField;
    location "0";
    object U;
}
dimensions [ 0 1 -1 0 0 0 0 ];
internalField uniform (0.0 0.0 0.0);
boundaryField
{

    //- Set patchGroups for constraint patches
    #includeEtc "caseDicts/setConstraintTypes"
    
    interior_Glass
    {
        type fixedValue;
        value uniform ( 0 0 0);
    }

    interior_Floor
    {
        type fixedValue;
        value uniform ( 0 0 0);
    }

    interior_SideRight
    {
        type slip;
    }

    interior_SideLeft
    {
        type slip;
    }

    interior_SideBack
    {
        type fixedValue;
        value uniform ( 0 0 0);
    }

    interior_Ceiling
    {
        type fixedValue;
        value uniform ( 0.0 0.0 0.0 );
    }

    interior_Duct
    {
        type fixedValue;
        value uniform ( 0 0 0);
    }

    interior_Inlet
    {
        type surfaceNormalFixedValue;
        value uniform ( 0.0 0.0 0.0 );
        refValue uniform -@@inlet_velocity@@;
    }

    interior_Outlet
    {
        type inletOutlet;
        value uniform ( 0.0 0.0 0.0 );
        inletValue uniform ( 0.0 0.0 0.0 );
    }

    interior_Person1
    {
        type fixedValue;
        value uniform ( 0 0 0);
    }

}
