/*--------------------------------*- C++ -*----------------------------------*\
|       o          |                                                          |
|    o     o       | HELYX-OS                                                  |
|   o   O   o      | Version: v2.4.0                                           |
|    o     o       | Web:     http://www.engys.com                            |
|       o          |                                                          |
\*---------------------------------------------------------------------------*/
FoamFile
{
    version 2.0;
    format ascii;
    class volScalarField;
    location "0";
    object p_rgh;
}
dimensions [ 0 2 -2 0 0 0 0 ];
internalField uniform 0.0;
boundaryField
{

    //- Set patchGroups for constraint patches
    #includeEtc "caseDicts/setConstraintTypes"
    
    interior_Glass
    {
        type fixedFluxPressure;
        value uniform 0;
        rho rhok;
    }

    interior_Floor
    {
        type fixedFluxPressure;
        value uniform 0;
        rho rhok;
    }

    interior_SideRight
    {
        type fixedFluxPressure;
        value uniform 0;
        rho rhok;
    }

    interior_SideLeft
    {
        type fixedFluxPressure;
        value uniform 0;
        rho rhok;
    }

    interior_SideBack
    {
        type fixedFluxPressure;
        value uniform 0;
        rho rhok;
    }

    interior_Ceiling
    {
        type fixedFluxPressure;
        value uniform 0;
        rho rhok;
    }

    interior_Duct
    {
        type fixedFluxPressure;
        value uniform 0;
        rho rhok;
    }

    interior_Inlet
    {
        type zeroGradient;
    }

    interior_Outlet
    {
        type fixedValue;
        value uniform 0.0;
    }

    interior_Person1
    {
        type fixedFluxPressure;
        value uniform 0;
        rho rhok;
    }

}
